<?xml version="1.0" encoding="UTF-8"?>

<!-- generated on 2023-11-25 01:22:13 by Eclipse SUMO GUI Version 1.19.0
<configuration xmlns:xsi="http://www.w3.org/2001/XMLSchema-instance" xsi:noNamespaceSchemaLocation="http://sumo.dlr.de/xsd/sumoConfiguration.xsd">

    <input>
        <net-file value="C:\Users\ceenu\Documents\SUMO_files\SUMOtrial2\NETWORK.net.xml"/>
        <route-files value="C:\Users\ceenu\Documents\SUMO_files\SUMOtrial2\trips.trips.xml"/>
    </input>

    <output>
        <fcd-output value="C:\Users\ceenu\Documents\SUMO_files\SUMOtrial2\fcd_output.xml"/>
    </output>

    <time>
        <begin value="0"/>
        <end value="1000"/>
        <step-length value="0.4"/>
    </time>

</configuration>
-->

<fcd-export xmlns:xsi="http://www.w3.org/2001/XMLSchema-instance" xsi:noNamespaceSchemaLocation="http://sumo.dlr.de/xsd/fcd_file.xsd">
    <timestep time="0.00">
        <vehicle id="0" x="495.20" y="584.50" angle="180.00" type="DEFAULT_VEHTYPE" speed="0.00" pos="5.10" lane="E21_0" slope="0.00"/>
    </timestep>
    <timestep time="0.40">
        <vehicle id="0" x="495.20" y="584.16" angle="180.00" type="DEFAULT_VEHTYPE" speed="0.85" pos="5.44" lane="E21_0" slope="0.00"/>
    </timestep>
    <timestep time="0.80">
        <vehicle id="0" x="495.20" y="583.47" angle="180.00" type="DEFAULT_VEHTYPE" speed="1.73" pos="6.13" lane="E21_0" slope="0.00"/>
    </timestep>
    <timestep time="1.20">
        <vehicle id="0" x="495.20" y="582.52" angle="180.00" type="DEFAULT_VEHTYPE" speed="2.38" pos="7.08" lane="E21_0" slope="0.00"/>
        <vehicle id="1" x="295.20" y="384.50" angle="180.00" type="DEFAULT_VEHTYPE" speed="0.00" pos="5.10" lane="-E33_0" slope="0.00"/>
    </timestep>
    <timestep time="1.60">
        <vehicle id="0" x="495.20" y="581.22" angle="180.00" type="DEFAULT_VEHTYPE" speed="3.24" pos="8.38" lane="E21_0" slope="0.00"/>
        <vehicle id="1" x="295.20" y="384.09" angle="180.00" type="DEFAULT_VEHTYPE" speed="1.03" pos="5.51" lane="-E33_0" slope="0.00"/>
    </timestep>
    <timestep time="2.00">
        <vehicle id="0" x="495.20" y="579.54" angle="180.00" type="DEFAULT_VEHTYPE" speed="4.19" pos="10.06" lane="E21_0" slope="0.00"/>
        <vehicle id="1" x="295.20" y="383.27" angle="180.00" type="DEFAULT_VEHTYPE" speed="2.05" pos="6.33" lane="-E33_0" slope="0.00"/>
        <vehicle id="2" x="415.50" y="295.20" angle="90.00" type="DEFAULT_VEHTYPE" speed="0.00" pos="5.10" lane="E3_0" slope="0.00"/>
    </timestep>
    <timestep time="2.40">
        <vehicle id="0" x="495.20" y="577.59" angle="180.00" type="DEFAULT_VEHTYPE" speed="4.88" pos="12.01" lane="E21_0" slope="0.00"/>
        <vehicle id="1" x="295.20" y="382.13" angle="180.00" type="DEFAULT_VEHTYPE" speed="2.85" pos="7.47" lane="-E33_0" slope="0.00"/>
        <vehicle id="2" x="415.84" y="295.20" angle="90.00" type="DEFAULT_VEHTYPE" speed="0.84" pos="5.44" lane="E3_0" slope="0.00"/>
    </timestep>
    <timestep time="2.80">
        <vehicle id="0" x="495.20" y="575.41" angle="180.00" type="DEFAULT_VEHTYPE" speed="5.44" pos="14.19" lane="E21_0" slope="0.00"/>
        <vehicle id="1" x="295.20" y="380.64" angle="180.00" type="DEFAULT_VEHTYPE" speed="3.72" pos="8.96" lane="-E33_0" slope="0.00"/>
        <vehicle id="2" x="416.46" y="295.20" angle="90.00" type="DEFAULT_VEHTYPE" speed="1.56" pos="6.06" lane="E3_0" slope="0.00"/>
    </timestep>
    <timestep time="3.20">
        <vehicle id="0" x="495.20" y="572.84" angle="180.00" type="DEFAULT_VEHTYPE" speed="6.44" pos="16.76" lane="E21_0" slope="0.00"/>
        <vehicle id="1" x="295.20" y="378.77" angle="180.00" type="DEFAULT_VEHTYPE" speed="4.68" pos="10.83" lane="-E33_0" slope="0.00"/>
        <vehicle id="2" x="417.32" y="295.20" angle="90.00" type="DEFAULT_VEHTYPE" speed="2.15" pos="6.92" lane="E3_0" slope="0.00"/>
        <vehicle id="3" x="515.50" y="295.20" angle="90.00" type="DEFAULT_VEHTYPE" speed="0.00" pos="5.10" lane="E4_0" slope="0.00"/>
    </timestep>
    <timestep time="3.60">
        <vehicle id="0" x="495.20" y="569.85" angle="180.00" type="DEFAULT_VEHTYPE" speed="7.46" pos="19.75" lane="E21_0" slope="0.00"/>
        <vehicle id="1" x="295.20" y="376.58" angle="180.00" type="DEFAULT_VEHTYPE" speed="5.48" pos="13.02" lane="-E33_0" slope="0.00"/>
        <vehicle id="2" x="418.59" y="298.40" angle="90.00" type="DEFAULT_VEHTYPE" speed="3.17" pos="8.19" lane="E3_1" slope="0.00"/>
        <vehicle id="3" x="515.89" y="295.20" angle="90.00" type="DEFAULT_VEHTYPE" speed="0.97" pos="5.49" lane="E4_0" slope="0.00"/>
    </timestep>
    <timestep time="4.00">
        <vehicle id="0" x="495.20" y="566.51" angle="180.00" type="DEFAULT_VEHTYPE" speed="8.36" pos="23.09" lane="E21_0" slope="0.00"/>
        <vehicle id="1" x="295.20" y="374.01" angle="180.00" type="DEFAULT_VEHTYPE" speed="6.42" pos="15.59" lane="-E33_0" slope="0.00"/>
        <vehicle id="2" x="420.12" y="298.40" angle="90.00" type="DEFAULT_VEHTYPE" speed="3.83" pos="9.72" lane="E3_1" slope="0.00"/>
        <vehicle id="3" x="516.67" y="295.20" angle="90.00" type="DEFAULT_VEHTYPE" speed="1.96" pos="6.27" lane="E4_0" slope="0.00"/>
        <vehicle id="4" x="588.50" y="304.80" angle="270.00" type="DEFAULT_VEHTYPE" speed="0.00" pos="5.10" lane="-E4_0" slope="0.00"/>
    </timestep>
    <timestep time="4.40">
        <vehicle id="0" x="495.20" y="562.80" angle="180.00" type="DEFAULT_VEHTYPE" speed="9.27" pos="26.80" lane="E21_0" slope="0.00"/>
        <vehicle id="1" x="298.40" y="371.06" angle="180.00" type="DEFAULT_VEHTYPE" speed="7.37" pos="18.54" lane="-E33_1" slope="0.00"/>
        <vehicle id="2" x="422.03" y="298.40" angle="90.00" type="DEFAULT_VEHTYPE" speed="4.78" pos="11.63" lane="E3_1" slope="0.00"/>
        <vehicle id="3" x="517.81" y="295.20" angle="90.00" type="DEFAULT_VEHTYPE" speed="2.83" pos="7.41" lane="E4_0" slope="0.00"/>
        <vehicle id="4" x="588.14" y="304.80" angle="270.00" type="DEFAULT_VEHTYPE" speed="0.89" pos="5.46" lane="-E4_0" slope="0.00"/>
    </timestep>
    <timestep time="4.80">
        <vehicle id="0" x="495.20" y="558.78" angle="180.00" type="DEFAULT_VEHTYPE" speed="10.06" pos="30.82" lane="E21_0" slope="0.00"/>
        <vehicle id="1" x="298.40" y="367.82" angle="180.00" type="DEFAULT_VEHTYPE" speed="8.09" pos="21.78" lane="-E33_1" slope="0.00"/>
        <vehicle id="2" x="424.36" y="298.40" angle="90.00" type="DEFAULT_VEHTYPE" speed="5.81" pos="13.96" lane="E3_1" slope="0.00"/>
        <vehicle id="3" x="519.16" y="295.20" angle="90.00" type="DEFAULT_VEHTYPE" speed="3.39" pos="8.76" lane="E4_0" slope="0.00"/>
        <vehicle id="4" x="587.46" y="304.80" angle="270.00" type="DEFAULT_VEHTYPE" speed="1.72" pos="6.14" lane="-E4_0" slope="0.00"/>
    </timestep>
    <timestep time="5.20">
        <vehicle id="0" x="495.20" y="554.48" angle="180.00" type="DEFAULT_VEHTYPE" speed="10.75" pos="35.12" lane="E21_0" slope="0.00"/>
        <vehicle id="1" x="298.40" y="364.25" angle="180.00" type="DEFAULT_VEHTYPE" speed="8.93" pos="25.35" lane="-E33_1" slope="0.00"/>
        <vehicle id="2" x="427.07" y="298.40" angle="90.00" type="DEFAULT_VEHTYPE" speed="6.78" pos="16.67" lane="E3_1" slope="0.00"/>
        <vehicle id="3" x="520.74" y="295.20" angle="90.00" type="DEFAULT_VEHTYPE" speed="3.95" pos="10.34" lane="E4_0" slope="0.00"/>
        <vehicle id="4" x="586.47" y="304.80" angle="270.00" type="DEFAULT_VEHTYPE" speed="2.46" pos="7.13" lane="-E4_0" slope="0.00"/>
        <vehicle id="5" x="484.50" y="604.80" angle="270.00" type="DEFAULT_VEHTYPE" speed="0.00" pos="5.10" lane="-E23_0" slope="0.00"/>
    </timestep>
    <timestep time="5.60">
        <vehicle id="0" x="495.20" y="549.84" angle="180.00" type="DEFAULT_VEHTYPE" speed="11.60" pos="39.76" lane="E21_0" slope="0.00"/>
        <vehicle id="1" x="298.40" y="360.45" angle="180.00" type="DEFAULT_VEHTYPE" speed="9.50" pos="29.15" lane="-E33_1" slope="0.00"/>
        <vehicle id="2" x="430.18" y="298.40" angle="90.00" type="DEFAULT_VEHTYPE" speed="7.77" pos="19.78" lane="E3_1" slope="0.00"/>
        <vehicle id="3" x="522.65" y="295.20" angle="90.00" type="DEFAULT_VEHTYPE" speed="4.77" pos="12.25" lane="E4_0" slope="0.00"/>
        <vehicle id="4" x="585.25" y="304.80" angle="270.00" type="DEFAULT_VEHTYPE" speed="3.05" pos="8.35" lane="-E4_0" slope="0.00"/>
        <vehicle id="5" x="484.11" y="604.80" angle="270.00" type="DEFAULT_VEHTYPE" speed="0.98" pos="5.49" lane="-E23_0" slope="0.00"/>
    </timestep>
    <timestep time="6.00">
        <vehicle id="0" x="495.20" y="544.93" angle="180.00" type="DEFAULT_VEHTYPE" speed="12.27" pos="44.67" lane="E21_0" slope="0.00"/>
        <vehicle id="1" x="298.40" y="356.29" angle="180.00" type="DEFAULT_VEHTYPE" speed="10.42" pos="33.31" lane="-E33_1" slope="0.00"/>
        <vehicle id="2" x="433.51" y="298.40" angle="90.00" type="DEFAULT_VEHTYPE" speed="8.33" pos="23.11" lane="E3_1" slope="0.00"/>
        <vehicle id="3" x="524.91" y="295.20" angle="90.00" type="DEFAULT_VEHTYPE" speed="5.64" pos="14.51" lane="E4_0" slope="0.00"/>
        <vehicle id="4" x="583.63" y="304.80" angle="270.00" type="DEFAULT_VEHTYPE" speed="4.04" pos="9.97" lane="-E4_0" slope="0.00"/>
        <vehicle id="5" x="483.39" y="604.80" angle="270.00" type="DEFAULT_VEHTYPE" speed="1.79" pos="6.21" lane="-E23_0" slope="0.00"/>
        <vehicle id="6" x="404.80" y="315.50" angle="0.00" type="DEFAULT_VEHTYPE" speed="0.00" pos="5.10" lane="-E11_0" slope="0.00"/>
    </timestep>
    <timestep time="6.40">
        <vehicle id="0" x="495.20" y="539.79" angle="180.00" type="DEFAULT_VEHTYPE" speed="12.85" pos="49.81" lane="E21_0" slope="0.00"/>
        <vehicle id="1" x="298.40" y="351.89" angle="180.00" type="DEFAULT_VEHTYPE" speed="11.00" pos="37.71" lane="-E33_1" slope="0.00"/>
        <vehicle id="2" x="437.21" y="298.40" angle="90.00" type="DEFAULT_VEHTYPE" speed="9.26" pos="26.81" lane="E3_1" slope="0.00"/>
        <vehicle id="3" x="527.50" y="295.20" angle="90.00" type="DEFAULT_VEHTYPE" speed="6.49" pos="17.10" lane="E4_0" slope="0.00"/>
        <vehicle id="4" x="581.71" y="304.80" angle="270.00" type="DEFAULT_VEHTYPE" speed="4.80" pos="11.89" lane="-E4_0" slope="0.00"/>
        <vehicle id="5" x="482.36" y="604.80" angle="270.00" type="DEFAULT_VEHTYPE" speed="2.57" pos="7.24" lane="-E23_0" slope="0.00"/>
        <vehicle id="6" x="404.80" y="315.91" angle="0.00" type="DEFAULT_VEHTYPE" speed="1.03" pos="5.51" lane="-E11_0" slope="0.00"/>
    </timestep>
    <timestep time="6.80">
        <vehicle id="0" x="495.20" y="534.34" angle="180.00" type="DEFAULT_VEHTYPE" speed="13.63" pos="55.26" lane="E21_0" slope="0.00"/>
        <vehicle id="1" x="298.40" y="347.17" angle="180.00" type="DEFAULT_VEHTYPE" speed="11.80" pos="42.43" lane="-E33_1" slope="0.00"/>
        <vehicle id="2" x="441.32" y="298.40" angle="90.00" type="DEFAULT_VEHTYPE" speed="10.27" pos="30.92" lane="E3_1" slope="0.00"/>
        <vehicle id="3" x="530.48" y="298.40" angle="90.00" type="DEFAULT_VEHTYPE" speed="7.44" pos="20.08" lane="E4_1" slope="0.00"/>
        <vehicle id="4" x="579.38" y="304.80" angle="270.00" type="DEFAULT_VEHTYPE" speed="5.84" pos="14.22" lane="-E4_0" slope="0.00"/>
        <vehicle id="5" x="480.92" y="604.80" angle="270.00" type="DEFAULT_VEHTYPE" speed="3.61" pos="8.68" lane="-E23_0" slope="0.00"/>
        <vehicle id="6" x="404.80" y="316.67" angle="0.00" type="DEFAULT_VEHTYPE" speed="1.91" pos="6.27" lane="-E11_0" slope="0.00"/>
    </timestep>
    <timestep time="7.20">
        <vehicle id="0" x="495.20" y="528.65" angle="180.00" type="DEFAULT_VEHTYPE" speed="14.22" pos="60.95" lane="E21_0" slope="0.00"/>
        <vehicle id="1" x="298.40" y="342.05" angle="180.00" type="DEFAULT_VEHTYPE" speed="12.80" pos="47.55" lane="-E33_1" slope="0.00"/>
        <vehicle id="2" x="445.76" y="298.40" angle="90.00" type="DEFAULT_VEHTYPE" speed="11.09" pos="35.36" lane="E3_1" slope="0.00"/>
        <vehicle id="3" x="533.70" y="298.40" angle="90.00" type="DEFAULT_VEHTYPE" speed="8.06" pos="23.30" lane="E4_1" slope="0.00"/>
        <vehicle id="4" x="576.64" y="304.80" angle="270.00" type="DEFAULT_VEHTYPE" speed="6.85" pos="16.96" lane="-E4_0" slope="0.00"/>
        <vehicle id="5" x="479.22" y="604.80" angle="270.00" type="DEFAULT_VEHTYPE" speed="4.23" pos="10.38" lane="-E23_0" slope="0.00"/>
        <vehicle id="6" x="404.80" y="317.65" angle="0.00" type="DEFAULT_VEHTYPE" speed="2.45" pos="7.25" lane="-E11_0" slope="0.00"/>
        <vehicle id="7" x="495.20" y="584.50" angle="180.00" type="DEFAULT_VEHTYPE" speed="0.00" pos="5.10" lane="E21_0" slope="0.00"/>
    </timestep>
    <timestep time="7.60">
        <vehicle id="0" x="495.20" y="523.06" angle="180.00" type="DEFAULT_VEHTYPE" speed="13.99" pos="66.54" lane="E21_0" slope="0.00"/>
        <vehicle id="1" x="298.40" y="336.92" angle="180.00" type="DEFAULT_VEHTYPE" speed="12.83" pos="52.68" lane="-E33_1" slope="0.00"/>
        <vehicle id="2" x="450.57" y="298.40" angle="90.00" type="DEFAULT_VEHTYPE" speed="12.02" pos="40.17" lane="E3_1" slope="0.00"/>
        <vehicle id="3" x="537.15" y="298.40" angle="90.00" type="DEFAULT_VEHTYPE" speed="8.62" pos="26.75" lane="E4_1" slope="0.00"/>
        <vehicle id="4" x="573.64" y="304.80" angle="270.00" type="DEFAULT_VEHTYPE" speed="7.50" pos="19.96" lane="-E4_0" slope="0.00"/>
        <vehicle id="5" x="477.31" y="604.80" angle="270.00" type="DEFAULT_VEHTYPE" speed="4.79" pos="12.29" lane="-E23_0" slope="0.00"/>
        <vehicle id="6" x="404.80" y="318.89" angle="0.00" type="DEFAULT_VEHTYPE" speed="3.10" pos="8.49" lane="-E11_0" slope="0.00"/>
        <vehicle id="7" x="495.20" y="584.10" angle="180.00" type="DEFAULT_VEHTYPE" speed="1.01" pos="5.50" lane="E21_0" slope="0.00"/>
    </timestep>
    <timestep time="8.00">
        <vehicle id="0" x="495.20" y="518.18" angle="180.00" type="DEFAULT_VEHTYPE" speed="12.19" pos="71.42" lane="E21_0" slope="0.00"/>
        <vehicle id="1" x="298.40" y="331.87" angle="180.00" type="DEFAULT_VEHTYPE" speed="12.61" pos="57.73" lane="-E33_1" slope="0.00"/>
        <vehicle id="2" x="455.77" y="298.40" angle="90.00" type="DEFAULT_VEHTYPE" speed="13.00" pos="45.37" lane="E3_1" slope="0.00"/>
        <vehicle id="3" x="540.92" y="298.40" angle="90.00" type="DEFAULT_VEHTYPE" speed="9.44" pos="30.52" lane="E4_1" slope="0.00"/>
        <vehicle id="4" x="570.30" y="304.80" angle="270.00" type="DEFAULT_VEHTYPE" speed="8.36" pos="23.30" lane="-E4_0" slope="0.00"/>
        <vehicle id="5" x="475.17" y="604.80" angle="270.00" type="DEFAULT_VEHTYPE" speed="5.35" pos="14.43" lane="-E23_0" slope="0.00"/>
        <vehicle id="6" x="404.80" y="320.35" angle="0.00" type="DEFAULT_VEHTYPE" speed="3.65" pos="9.95" lane="-E11_0" slope="0.00"/>
        <vehicle id="7" x="495.20" y="583.44" angle="180.00" type="DEFAULT_VEHTYPE" speed="1.65" pos="6.16" lane="E21_0" slope="0.00"/>
        <vehicle id="8" x="484.50" y="604.80" angle="270.00" type="DEFAULT_VEHTYPE" speed="0.00" pos="5.10" lane="-E23_0" slope="0.00"/>
    </timestep>
    <timestep time="8.40">
        <vehicle id="0" x="495.20" y="514.03" angle="180.00" type="DEFAULT_VEHTYPE" speed="10.39" pos="75.57" lane="E21_0" slope="0.00"/>
        <vehicle id="1" x="298.40" y="326.66" angle="180.00" type="DEFAULT_VEHTYPE" speed="13.03" pos="62.94" lane="-E33_1" slope="0.00"/>
        <vehicle id="2" x="461.33" y="298.40" angle="90.00" type="DEFAULT_VEHTYPE" speed="13.91" pos="50.93" lane="E3_1" slope="0.00"/>
        <vehicle id="3" x="544.95" y="298.40" angle="90.00" type="DEFAULT_VEHTYPE" speed="10.06" pos="34.55" lane="E4_1" slope="0.00"/>
        <vehicle id="4" x="566.64" y="304.80" angle="270.00" type="DEFAULT_VEHTYPE" speed="9.14" pos="26.96" lane="-E4_0" slope="0.00"/>
        <vehicle id="5" x="472.69" y="604.80" angle="270.00" type="DEFAULT_VEHTYPE" speed="6.20" pos="16.91" lane="-E23_0" slope="0.00"/>
        <vehicle id="6" x="404.80" y="322.15" angle="0.00" type="DEFAULT_VEHTYPE" speed="4.49" pos="11.75" lane="-E11_0" slope="0.00"/>
        <vehicle id="7" x="495.20" y="582.39" angle="180.00" type="DEFAULT_VEHTYPE" speed="2.62" pos="7.21" lane="E21_0" slope="0.00"/>
        <vehicle id="8" x="484.11" y="604.80" angle="270.00" type="DEFAULT_VEHTYPE" speed="0.97" pos="5.49" lane="-E23_0" slope="0.00"/>
    </timestep>
    <timestep time="8.80">
        <vehicle id="0" x="495.20" y="510.59" angle="180.00" type="DEFAULT_VEHTYPE" speed="8.59" pos="79.01" lane="E21_0" slope="0.00"/>
        <vehicle id="1" x="298.40" y="321.55" angle="180.00" type="DEFAULT_VEHTYPE" speed="12.78" pos="68.05" lane="-E33_1" slope="0.00"/>
        <vehicle id="2" x="466.79" y="298.40" angle="90.00" type="DEFAULT_VEHTYPE" speed="13.65" pos="56.39" lane="E3_1" slope="0.00"/>
        <vehicle id="3" x="549.25" y="298.40" angle="90.00" type="DEFAULT_VEHTYPE" speed="10.75" pos="38.85" lane="E4_1" slope="0.00"/>
        <vehicle id="4" x="562.70" y="304.80" angle="270.00" type="DEFAULT_VEHTYPE" speed="9.87" pos="30.90" lane="-E4_0" slope="0.00"/>
        <vehicle id="5" x="469.95" y="604.80" angle="270.00" type="DEFAULT_VEHTYPE" speed="6.85" pos="19.65" lane="-E23_0" slope="0.00"/>
        <vehicle id="6" x="404.80" y="324.28" angle="0.00" type="DEFAULT_VEHTYPE" speed="5.34" pos="13.88" lane="-E11_0" slope="0.00"/>
        <vehicle id="7" x="495.20" y="581.04" angle="180.00" type="DEFAULT_VEHTYPE" speed="3.36" pos="8.56" lane="E21_0" slope="0.00"/>
        <vehicle id="8" x="483.47" y="604.80" angle="270.00" type="DEFAULT_VEHTYPE" speed="1.61" pos="6.13" lane="-E23_0" slope="0.00"/>
    </timestep>
    <timestep time="9.20">
        <vehicle id="0" x="494.82" y="507.89" angle="184.42" type="DEFAULT_VEHTYPE" speed="6.83" pos="2.54" lane=":J8_0_0" slope="0.00"/>
        <vehicle id="1" x="298.40" y="316.61" angle="180.00" type="DEFAULT_VEHTYPE" speed="12.34" pos="72.99" lane="-E33_1" slope="0.00"/>
        <vehicle id="2" x="472.39" y="298.40" angle="90.00" type="DEFAULT_VEHTYPE" speed="13.99" pos="61.99" lane="E3_1" slope="0.00"/>
        <vehicle id="3" x="553.83" y="298.40" angle="90.00" type="DEFAULT_VEHTYPE" speed="11.45" pos="43.43" lane="E4_1" slope="0.00"/>
        <vehicle id="4" x="558.36" y="304.80" angle="270.00" type="DEFAULT_VEHTYPE" speed="10.84" pos="35.24" lane="-E4_0" slope="0.00"/>
        <vehicle id="5" x="466.82" y="604.80" angle="270.00" type="DEFAULT_VEHTYPE" speed="7.80" pos="22.78" lane="-E23_0" slope="0.00"/>
        <vehicle id="6" x="404.80" y="326.63" angle="0.00" type="DEFAULT_VEHTYPE" speed="5.88" pos="16.23" lane="-E11_0" slope="0.00"/>
        <vehicle id="7" x="495.20" y="579.39" angle="180.00" type="DEFAULT_VEHTYPE" speed="4.14" pos="10.21" lane="E21_0" slope="0.00"/>
        <vehicle id="8" x="482.51" y="604.80" angle="270.00" type="DEFAULT_VEHTYPE" speed="2.40" pos="7.09" lane="-E23_0" slope="0.00"/>
        <vehicle id="9" x="311.50" y="495.20" angle="90.00" type="DEFAULT_VEHTYPE" speed="0.00" pos="5.10" lane="E36_0" slope="0.00"/>
    </timestep>
    <timestep time="9.60">
        <vehicle id="0" x="493.18" y="505.83" angle="204.62" type="DEFAULT_VEHTYPE" speed="6.75" pos="5.24" lane=":J8_0_0" slope="0.00"/>
        <vehicle id="1" x="298.40" y="312.40" angle="180.00" type="DEFAULT_VEHTYPE" speed="10.54" pos="77.20" lane="-E33_1" slope="0.00"/>
        <vehicle id="2" x="477.62" y="298.40" angle="90.00" type="DEFAULT_VEHTYPE" speed="13.09" pos="67.22" lane="E3_1" slope="0.00"/>
        <vehicle id="3" x="558.78" y="298.40" angle="90.00" type="DEFAULT_VEHTYPE" speed="12.37" pos="48.38" lane="E4_1" slope="0.00"/>
        <vehicle id="4" x="553.79" y="304.80" angle="270.00" type="DEFAULT_VEHTYPE" speed="11.44" pos="39.81" lane="-E4_0" slope="0.00"/>
        <vehicle id="5" x="463.32" y="604.80" angle="270.00" type="DEFAULT_VEHTYPE" speed="8.75" pos="26.28" lane="-E23_0" slope="0.00"/>
        <vehicle id="6" x="404.80" y="329.26" angle="0.00" type="DEFAULT_VEHTYPE" speed="6.58" pos="18.86" lane="-E11_0" slope="0.00"/>
        <vehicle id="7" x="495.20" y="577.48" angle="180.00" type="DEFAULT_VEHTYPE" speed="4.77" pos="12.12" lane="E21_0" slope="0.00"/>
        <vehicle id="8" x="481.27" y="604.80" angle="270.00" type="DEFAULT_VEHTYPE" speed="3.10" pos="8.33" lane="-E23_0" slope="0.00"/>
        <vehicle id="9" x="311.86" y="495.20" angle="90.00" type="DEFAULT_VEHTYPE" speed="0.91" pos="5.46" lane="E36_0" slope="0.00"/>
    </timestep>
    <timestep time="10.00">
        <vehicle id="0" x="490.68" y="504.95" angle="236.57" type="DEFAULT_VEHTYPE" speed="6.76" pos="7.94" lane=":J8_0_0" slope="0.00"/>
        <vehicle id="1" x="298.40" y="308.82" angle="180.00" type="DEFAULT_VEHTYPE" speed="8.95" pos="80.78" lane="-E33_1" slope="0.00"/>
        <vehicle id="2" x="482.15" y="298.40" angle="90.00" type="DEFAULT_VEHTYPE" speed="11.32" pos="71.75" lane="E3_1" slope="0.00"/>
        <vehicle id="3" x="564.09" y="298.40" angle="90.00" type="DEFAULT_VEHTYPE" speed="13.27" pos="53.69" lane="E4_1" slope="0.00"/>
        <vehicle id="4" x="548.96" y="304.80" angle="270.00" type="DEFAULT_VEHTYPE" speed="12.06" pos="44.64" lane="-E4_0" slope="0.00"/>
        <vehicle id="5" x="459.43" y="604.80" angle="270.00" type="DEFAULT_VEHTYPE" speed="9.72" pos="30.17" lane="-E23_0" slope="0.00"/>
        <vehicle id="6" x="404.80" y="332.23" angle="0.00" type="DEFAULT_VEHTYPE" speed="7.43" pos="21.83" lane="-E11_0" slope="0.00"/>
        <vehicle id="7" x="495.20" y="575.23" angle="180.00" type="DEFAULT_VEHTYPE" speed="5.63" pos="14.37" lane="E21_0" slope="0.00"/>
        <vehicle id="8" x="479.66" y="604.80" angle="270.00" type="DEFAULT_VEHTYPE" speed="4.02" pos="9.94" lane="-E23_0" slope="0.00"/>
        <vehicle id="9" x="312.63" y="495.20" angle="90.00" type="DEFAULT_VEHTYPE" speed="1.91" pos="6.23" lane="E36_0" slope="0.00"/>
    </timestep>
    <timestep time="10.40">
        <vehicle id="0" x="487.99" y="504.80" angle="260.37" type="DEFAULT_VEHTYPE" speed="6.74" pos="1.61" lane="-E8_0" slope="0.00"/>
        <vehicle id="1" x="298.46" y="305.96" angle="179.28" type="DEFAULT_VEHTYPE" speed="7.15" pos="0.44" lane=":J25_0_1" slope="0.00"/>
        <vehicle id="2" x="485.95" y="298.40" angle="90.00" type="DEFAULT_VEHTYPE" speed="9.52" pos="75.55" lane="E3_1" slope="0.00"/>
        <vehicle id="3" x="569.73" y="298.40" angle="90.00" type="DEFAULT_VEHTYPE" speed="14.12" pos="59.33" lane="E4_1" slope="0.00"/>
        <vehicle id="4" x="543.75" y="304.80" angle="270.00" type="DEFAULT_VEHTYPE" speed="13.02" pos="49.85" lane="-E4_0" slope="0.00"/>
        <vehicle id="5" x="455.32" y="604.80" angle="270.00" type="DEFAULT_VEHTYPE" speed="10.29" pos="34.28" lane="-E23_0" slope="0.00"/>
        <vehicle id="6" x="404.80" y="335.42" angle="0.00" type="DEFAULT_VEHTYPE" speed="7.96" pos="25.02" lane="-E11_0" slope="0.00"/>
        <vehicle id="7" x="495.20" y="572.62" angle="180.00" type="DEFAULT_VEHTYPE" speed="6.53" pos="16.98" lane="E21_0" slope="0.00"/>
        <vehicle id="8" x="477.68" y="604.80" angle="270.00" type="DEFAULT_VEHTYPE" speed="4.95" pos="11.92" lane="-E23_0" slope="0.00"/>
        <vehicle id="9" x="313.70" y="495.20" angle="90.00" type="DEFAULT_VEHTYPE" speed="2.69" pos="7.30" lane="E36_0" slope="0.00"/>
    </timestep>
    <timestep time="10.80">
        <vehicle id="0" x="485.05" y="504.80" angle="269.27" type="DEFAULT_VEHTYPE" speed="7.36" pos="4.55" lane="-E8_0" slope="0.00"/>
        <vehicle id="1" x="298.84" y="303.32" angle="174.93" type="DEFAULT_VEHTYPE" speed="6.67" pos="3.11" lane=":J25_0_1" slope="0.00"/>
        <vehicle id="2" x="489.04" y="298.40" angle="90.00" type="DEFAULT_VEHTYPE" speed="7.72" pos="78.64" lane="E3_1" slope="0.00"/>
        <vehicle id="3" x="575.64" y="298.40" angle="90.00" type="DEFAULT_VEHTYPE" speed="14.77" pos="65.24" lane="E4_1" slope="0.00"/>
        <vehicle id="4" x="538.33" y="304.80" angle="270.00" type="DEFAULT_VEHTYPE" speed="13.56" pos="55.27" lane="-E4_0" slope="0.00"/>
        <vehicle id="5" x="450.93" y="604.80" angle="270.00" type="DEFAULT_VEHTYPE" speed="10.97" pos="38.67" lane="-E23_0" slope="0.00"/>
        <vehicle id="6" x="404.80" y="338.85" angle="0.00" type="DEFAULT_VEHTYPE" speed="8.58" pos="28.45" lane="-E11_0" slope="0.00"/>
        <vehicle id="7" x="495.20" y="569.66" angle="180.00" type="DEFAULT_VEHTYPE" speed="7.39" pos="19.94" lane="E21_0" slope="0.00"/>
        <vehicle id="8" x="475.31" y="604.80" angle="270.00" type="DEFAULT_VEHTYPE" speed="5.92" pos="14.29" lane="-E23_0" slope="0.00"/>
        <vehicle id="9" x="315.17" y="495.20" angle="90.00" type="DEFAULT_VEHTYPE" speed="3.66" pos="8.77" lane="E36_0" slope="0.00"/>
    </timestep>
    <timestep time="11.20">
        <vehicle id="0" x="481.84" y="504.80" angle="270.00" type="DEFAULT_VEHTYPE" speed="8.02" pos="7.76" lane="-E8_0" slope="0.00"/>
        <vehicle id="1" x="300.15" y="300.81" angle="160.74" type="DEFAULT_VEHTYPE" speed="7.15" pos="5.97" lane=":J25_0_1" slope="0.00"/>
        <vehicle id="11" x="384.50" y="504.80" angle="270.00" type="DEFAULT_VEHTYPE" speed="0.00" pos="5.10" lane="-E36_0" slope="0.00"/>
        <vehicle id="2" x="491.44" y="298.66" angle="86.97" type="DEFAULT_VEHTYPE" speed="6.04" pos="1.86" lane=":J4_10_0" slope="0.00"/>
        <vehicle id="3" x="581.17" y="298.40" angle="90.00" type="DEFAULT_VEHTYPE" speed="13.81" pos="70.77" lane="E4_1" slope="0.00"/>
        <vehicle id="4" x="532.69" y="304.80" angle="270.00" type="DEFAULT_VEHTYPE" speed="14.09" pos="60.91" lane="-E4_0" slope="0.00"/>
        <vehicle id="5" x="446.50" y="604.80" angle="270.00" type="DEFAULT_VEHTYPE" speed="11.08" pos="43.10" lane="-E23_0" slope="0.00"/>
        <vehicle id="6" x="404.80" y="342.51" angle="0.00" type="DEFAULT_VEHTYPE" speed="9.16" pos="32.11" lane="-E11_0" slope="0.00"/>
        <vehicle id="7" x="495.20" y="566.41" angle="180.00" type="DEFAULT_VEHTYPE" speed="8.12" pos="23.19" lane="E21_0" slope="0.00"/>
        <vehicle id="8" x="472.54" y="604.80" angle="270.00" type="DEFAULT_VEHTYPE" speed="6.93" pos="17.06" lane="-E23_0" slope="0.00"/>
        <vehicle id="9" x="316.86" y="495.20" angle="90.00" type="DEFAULT_VEHTYPE" speed="4.23" pos="10.46" lane="E36_0" slope="0.00"/>
    </timestep>
    <timestep time="11.60">
        <vehicle id="0" x="478.34" y="504.80" angle="270.00" type="DEFAULT_VEHTYPE" speed="8.77" pos="11.26" lane="-E8_0" slope="0.00"/>
        <vehicle id="1" x="302.41" y="299.19" angle="135.89" type="DEFAULT_VEHTYPE" speed="7.05" pos="8.80" lane=":J25_0_1" slope="0.00"/>
        <vehicle id="11" x="384.16" y="504.80" angle="270.00" type="DEFAULT_VEHTYPE" speed="0.85" pos="5.44" lane="-E36_0" slope="0.00"/>
        <vehicle id="2" x="494.24" y="299.06" angle="82.36" type="DEFAULT_VEHTYPE" speed="7.08" pos="4.69" lane=":J4_10_0" slope="0.00"/>
        <vehicle id="3" x="586.01" y="298.40" angle="90.00" type="DEFAULT_VEHTYPE" speed="12.10" pos="75.61" lane="E4_1" slope="0.00"/>
        <vehicle id="4" x="526.98" y="304.80" angle="270.00" type="DEFAULT_VEHTYPE" speed="14.30" pos="66.62" lane="-E4_0" slope="0.00"/>
        <vehicle id="5" x="441.95" y="604.80" angle="270.00" type="DEFAULT_VEHTYPE" speed="11.36" pos="47.65" lane="-E23_0" slope="0.00"/>
        <vehicle id="6" x="404.80" y="346.45" angle="0.00" type="DEFAULT_VEHTYPE" speed="9.86" pos="36.05" lane="-E11_0" slope="0.00"/>
        <vehicle id="7" x="495.20" y="562.90" angle="180.00" type="DEFAULT_VEHTYPE" speed="8.80" pos="26.70" lane="E21_0" slope="0.00"/>
        <vehicle id="8" x="469.39" y="604.80" angle="270.00" type="DEFAULT_VEHTYPE" speed="7.87" pos="20.21" lane="-E23_0" slope="0.00"/>
        <vehicle id="9" x="318.78" y="495.20" angle="90.00" type="DEFAULT_VEHTYPE" speed="4.80" pos="12.38" lane="E36_0" slope="0.00"/>
    </timestep>
    <timestep time="12.00">
        <vehicle id="0" x="474.59" y="504.80" angle="270.00" type="DEFAULT_VEHTYPE" speed="9.37" pos="15.01" lane="-E8_0" slope="0.00"/>
        <vehicle id="1" x="305.05" y="298.59" angle="111.05" type="DEFAULT_VEHTYPE" speed="6.86" pos="11.54" lane=":J25_0_1" slope="0.00"/>
        <vehicle id="10" x="311.50" y="495.20" angle="90.00" type="DEFAULT_VEHTYPE" speed="0.00" pos="5.10" lane="E36_0" slope="0.00"/>
        <vehicle id="11" x="383.51" y="504.80" angle="270.00" type="DEFAULT_VEHTYPE" speed="1.62" pos="6.09" lane="-E36_0" slope="0.00"/>
        <vehicle id="12" x="515.50" y="495.20" angle="90.00" type="DEFAULT_VEHTYPE" speed="0.00" pos="5.10" lane="E7_0" slope="0.00"/>
        <vehicle id="2" x="497.09" y="300.50" angle="69.93" type="DEFAULT_VEHTYPE" speed="8.07" pos="2.91" lane=":J4_13_0" slope="0.00"/>
        <vehicle id="3" x="590.14" y="298.40" angle="90.00" type="DEFAULT_VEHTYPE" speed="10.34" pos="79.74" lane="E4_1" slope="0.00"/>
        <vehicle id="4" x="521.79" y="304.80" angle="270.00" type="DEFAULT_VEHTYPE" speed="12.96" pos="71.81" lane="-E4_0" slope="0.00"/>
        <vehicle id="5" x="437.34" y="604.80" angle="270.00" type="DEFAULT_VEHTYPE" speed="11.53" pos="52.26" lane="-E23_0" slope="0.00"/>
        <vehicle id="6" x="404.80" y="350.71" angle="0.00" type="DEFAULT_VEHTYPE" speed="10.65" pos="40.31" lane="-E11_0" slope="0.00"/>
        <vehicle id="7" x="495.20" y="559.01" angle="180.00" type="DEFAULT_VEHTYPE" speed="9.71" pos="30.59" lane="E21_0" slope="0.00"/>
        <vehicle id="8" x="465.91" y="604.80" angle="270.00" type="DEFAULT_VEHTYPE" speed="8.70" pos="23.69" lane="-E23_0" slope="0.00"/>
        <vehicle id="9" x="320.94" y="495.20" angle="90.00" type="DEFAULT_VEHTYPE" speed="5.40" pos="14.54" lane="E36_0" slope="0.00"/>
    </timestep>
    <timestep time="12.40">
        <vehicle id="0" x="470.51" y="504.80" angle="270.00" type="DEFAULT_VEHTYPE" speed="10.19" pos="19.09" lane="-E8_0" slope="0.00"/>
        <vehicle id="1" x="307.86" y="298.40" angle="95.79" type="DEFAULT_VEHTYPE" speed="7.04" pos="1.46" lane="E34_1" slope="0.00"/>
        <vehicle id="10" x="311.87" y="495.20" angle="90.00" type="DEFAULT_VEHTYPE" speed="0.92" pos="5.47" lane="E36_0" slope="0.00"/>